LAMMPS data file via write_data, version 17 Apr 2024, timestep = 100000, units = real

8640 atoms
2 atom types
5760 bonds
1 bond types
2880 angles
1 angle types

-22.46125106 22.46125106 xlo xhi
-23.342399635 23.342399635 ylo yhi
-22.00742929 22.00742929 zlo zhi

Masses

1 1.00794
2 15.9994

Pair Coeffs # lj/cut/coul/long

1 0 0
2 0.15535 3.166

Bond Coeffs # harmonic

1 0 1

Angle Coeffs # harmonic

1 0 109.47

Atoms # full

5511 1837 1 0.42379999 -18.948785400548125 -17.74098688084091 -18.353636969429918 0 0 0
5510 1837 1 0.42379999 -17.333410628320014 -17.816844733511637 -18.58043318949349 0 0 0
5509 1837 2 -0.84759998 -18.20860240704147 -18.25326708408367 -18.789181091121925 0 0 0
4431 1477 1 0.42379999 -16.005728014576036 -21.773941898600555 -18.49088254634725 0 0 0
4429 1477 2 -0.84759998 -15.388950740753039 -22.265226150048758 -19.105886138925936 0 0 0
4323 1441 1 0.42379999 -20.316838945043376 -21.389031290385066 -18.497222082368186 0 0 0
4322 1441 1 0.42379999 -18.7716997813834 -21.917194761535846 -18.51188104776523 0 0 0
4321 1441 2 -0.84759998 -19.69545059061303 -22.085642933345888 -18.85584315938751 0 0 0
3351 1117 1 0.42379999 -15.458646276675353 -22.29313713035829 -20.99177965289405 0 0 0
3243 1081 1 0.42379999 -20.140517269589928 -22.129216711165697 -20.662803405437863 0 0 0
2271 757 1 0.42379999 -18.24417399387079 -18.262912782035922 -20.52628113415537 0 0 0
1191 397 1 0.42379999 -15.95011755844349 -16.72679090006039 -16.99722613573016 0 0 0
1189 397 2 -0.84759998 -15.996706491911995 -16.900623442810904 -17.980898933699045 0 0 0
1083 361 1 0.42379999 -20.16033713872245 -16.26589472461087 -17.038569120490603 0 0 0
1081 361 2 -0.84759998 -20.002737618040992 -16.30452458420794 -18.02531709106362 0 0 0
111 37 1 0.42379999 -17.489766818924533 -20.704844384864575 -16.906141118396956 0 0 0
110 37 1 0.42379999 -17.69370644686556 -19.852578456922867 -18.28406683602492 0 0 0
109 37 2 -0.84759998 -17.494711380951344 -20.75622159218139 -17.904810111504528 0 0 0
1082 361 1 0.42379999 -19.871443429193352 -15.378190033352483 -18.37840104639542 0 0 0
5402 1801 1 0.42379999 -21.402791259965273 -17.35920045391402 -18.50569467784879 0 0 0
2269 757 2 -0.84759998 -18.208910388047467 -18.304524362754997 -21.52479288806393 0 0 0
3349 1117 2 -0.84759998 -15.525021674849109 -22.11080023633748 -21.972774618626648 0 0 0
3241 1081 2 -0.84759998 -20.17353547229314 -22.152414711177133 -21.661989044289523 0 0 0
1190 397 1 0.42379999 -15.7946255816573 -16.057023020086234 -18.47839456173782 0 0 0
3242 1081 1 0.42379999 -20.20285938172064 -23.10251764311082 -21.97254600280602 0 0 0
6498 2166 1 0.42379999 -19.565291860750474 -17.221481904633418 21.7855101504999 0 0 0
6497 2166 1 0.42379999 -21.19772874213377 -17.262136799511474 21.796627571288465 0 0 0
3683 1228 1 0.42379999 -2.6197038006472377 -22.993285981407038 -0.09798504541358126 0 0 0
2270 757 1 0.42379999 -18.13520924788263 -19.25826453191805 -21.816253342193292 0 0 0
3248 1083 1 0.42379999 -20.316993303297835 -22.552066121751572 -7.293878852557188 0 0 0
4430 1477 1 0.42379999 -14.463891432850705 -21.8965176534928 -19.0146599881865 0 0 0
5727 1909 1 0.42379999 -9.865785277503456 -17.474798528990828 -18.471401357577587 0 0 0
5726 1909 1 0.42379999 -8.248867377255275 -17.54005206015639 -18.252435336904437 0 0 0
5725 1909 2 -0.84759998 -9.017012589915302 -17.905439573030865 -18.77821780210512 0 0 0
5619 1873 1 0.42379999 -14.507621875361819 -17.974514806327438 -18.245252257233194 0 0 0
5618 1873 1 0.42379999 -12.912611273003035 -17.64447833290749 -18.362069839495724 0 0 0
5617 1873 2 -0.84759998 -13.648830476700347 -18.2400849506131 -18.68337698378373 0 0 0
4539 1513 1 0.42379999 -11.725038190947114 -21.632718658493886 -18.833067453933413 0 0 0
4538 1513 1 0.42379999 -10.12709172074622 -21.80083205066095 -18.54163723737782 0 0 0
4537 1513 2 -0.84759998 -10.879722987574844 -22.067396742317037 -19.14370842619699 0 0 0
3459 1153 1 0.42379999 -11.001295908639062 -22.105569119764244 -21.135480331744898 0 0 0
2487 829 1 0.42379999 -8.93030625957821 -18.089299694679305 -20.485120737685083 0 0 0
2379 793 1 0.42379999 -13.802816973714133 -18.210107589608942 -20.363904590700766 0 0 0
2377 793 2 -0.84759998 -13.743189962875329 -18.20623678289222 -21.36212066437186 0 0 0
1299 433 1 0.42379999 -11.590934612606382 -16.629943861105755 -16.83237445846935 0 0 0
1297 433 2 -0.84759998 -11.50575173277755 -16.565939216103548 -17.826683243944764 0 0 0
327 109 1 0.42379999 -9.024803886212755 -20.452228997735244 -16.710970972206937 0 0 0
326 109 1 0.42379999 -8.696707145397738 -19.69315922301991 -18.119087966020853 0 0 0
325 109 2 -0.84759998 -8.82873197721464 -20.583217128542845 -17.682774674928805 0 0 0
219 73 1 0.42379999 -13.293474108132568 -20.995802616434744 -17.300801278827915 0 0 0
218 73 1 0.42379999 -13.23747309518989 -19.859313379714187 -18.472075313400065 0 0 0
217 73 2 -0.84759998 -13.085623177859812 -20.8255752462968 -18.264036199672915 0 0 0
3457 1153 2 -0.84759998 -11.102999348956754 -22.032812379393732 21.887225128674388 0 0 -1
1298 433 1 0.42379999 -11.63078549656983 -15.6155265265763 -18.111435740827382 0 0 0
3566 1189 1 0.42379999 -6.69326575169994 -22.987747894439742 21.98712047010171 0 0 -1
2485 829 2 -0.84759998 -8.843187512189632 -18.18360387410459 -21.476845319827426 0 0 0
4647 1549 1 0.42379999 -7.365756720645623 -21.56880268957043 -18.47119717802472 0 0 0
4645 1549 2 -0.84759998 -6.483927646974426 -21.971687791915397 -18.71627134452197 0 0 0
5835 1945 1 0.42379999 -4.808181508007832 -17.35714516179103 -18.42975094615056 0 0 0
5834 1945 1 0.42379999 -3.199387212703984 -17.425358672019648 -18.158169908351546 0 0 0
5833 1945 2 -0.84759998 -3.999218222326318 -17.94423207281967 -18.459901635284215 0 0 0
4755 1585 1 0.42379999 -3.3032092344643162 -21.582655602052988 -18.53341631656245 0 0 0
4754 1585 1 0.42379999 -1.681569851405852 -21.677118765640387 -18.70071543028327 0 0 0
4753 1585 2 -0.84759998 -2.559187677636593 -21.9984253620185 -19.056453361565932 0 0 0
4646 1549 1 0.42379999 -5.747383891399977 -21.445080996872953 -18.29178445166606 0 0 0
3675 1225 1 0.42379999 -2.123064772472214 -22.535605572277298 -20.78436797370214 0 0 0
3567 1189 1 0.42379999 -6.5969450939146155 -22.01963813569584 -20.716207561977026 0 0 0
3565 1189 2 -0.84759998 -6.636750077374013 -22.039519397811404 -21.715217382437856 0 0 0
2595 865 1 0.42379999 -4.282667336741183 -17.864480117482685 -20.261633381944165 0 0 0
2593 865 2 -0.84759998 -4.512294836386334 -17.994390206047708 -21.226204844030786 0 0 0
1515 505 1 0.42379999 -1.857728998385172 -16.897222923581385 -16.689958998858465 0 0 0
1513 505 2 -0.84759998 -1.672328125890522 -16.64917814822462 -17.640802249351875 0 0 0
1407 469 1 0.42379999 -6.461370718908514 -16.49158274328773 -17.332247166580142 0 0 0
1405 469 2 -0.84759998 -6.55692994659629 -16.556196185508707 -18.32557271204059 0 0 0
435 145 1 0.42379999 -4.4333962103862845 -20.550493400111677 -16.58006278050098 0 0 0
434 145 1 0.42379999 -4.27628303561976 -19.764969506436028 -18.00305152643011 0 0 0
433 145 2 -0.84759998 -4.491455377488791 -20.642319915302586 -17.574145946809573 0 0 0
3673 1225 2 -0.84759998 -1.9723955349362257 -22.330441291189494 -21.751428792901212 0 0 0
2594 865 1 0.42379999 -4.39149508308517 -18.95642660901716 -21.47094602958125 0 0 0
1406 469 1 0.42379999 -6.5625684529967865 -15.63743153381626 -18.720343905138467 0 0 0
5943 1981 1 0.42379999 -0.5097904969113563 -17.774651823232276 -18.3755512649199 0 0 0
6822 2274 1 0.42379999 -5.896257925213104 -17.666678446792705 21.77023022631822 0 0 0
3254 1085 1 0.42379999 -20.140566349551722 -23.11089178399403 7.252722486994449 0 0 0
17 6 1 0.42379999 -22.118530544733574 -20.072872082260222 18.89178046292982 0 0 0
6929 2310 1 0.42379999 -3.1222591381839324 -17.368899145501548 21.950415097460912 0 0 0
546 182 1 0.42379999 -0.30513516280366615 -20.137674476249384 -9.277051171633364 0 0 0
3614 1205 1 0.42379999 -6.58655139682175 -7.942699913599167 6.957846617623248 0 0 0
5529 1843 1 0.42379999 -18.174670874963432 -9.793851367654003 -18.41235788012455 0 0 0
5528 1843 1 0.42379999 -16.552567089417224 -9.608492805767497 -18.44473349659967 0 0 0
5527 1843 2 -0.84759998 -17.315674147309668 -10.177194943922752 -18.751729369121175 0 0 0
4449 1483 1 0.42379999 -16.640017967824413 -13.776832747229456 -18.57535020876753 0 0 0
4447 1483 2 -0.84759998 -15.845117956765419 -14.302222479939852 -18.878829696491366 0 0 0
4341 1447 1 0.42379999 -20.841957063284543 -13.505909795776079 -18.566205627300718 0 0 0
4340 1447 1 0.42379999 -19.251184698832343 -13.253305253528733 -18.83501957170763 0 0 0
4339 1447 2 -0.84759998 -20.05528573768614 -13.773674108473028 -19.122488598729195 0 0 0
3369 1123 1 0.42379999 -15.657551979070155 -14.38402915426115 -20.581228155407775 0 0 0
3261 1087 1 0.42379999 -19.942056546779018 -14.144425421384375 -20.824491884084008 0 0 0
3259 1087 2 -0.84759998 -20.080006092094138 -14.18489840492737 -21.81410668323442 0 0 0
2289 763 1 0.42379999 -17.559465009065594 -10.485552072381006 -20.529292318072645 0 0 0
1209 403 1 0.42379999 -15.687503602382856 -8.760365599315582 -16.64794432052266 0 0 0
1207 403 2 -0.84759998 -15.543679925825257 -8.697330779682082 -17.635538314654767 0 0 0
1101 367 1 0.42379999 -19.998339837686125 -9.249437447534508 -16.78412396130099 0 0 0
1099 367 2 -0.84759998 -19.62424421949069 -9.095284455823109 -17.69861279989056 0 0 0
129 43 1 0.42379999 -18.166443141853446 -12.602170655791772 -16.934965080654347 0 0 0
128 43 1 0.42379999 -17.57263311493784 -11.846231204066745 -18.255030140524507 0 0 0
127 43 2 -0.84759998 -18.047609327764587 -12.6624233900925 -17.926049499851487 0 0 0
5420 1807 1 0.42379999 -21.389692987743448 -9.475362012840888 -18.374886668599917 0 0 0
2287 763 2 -0.84759998 -17.493311288016677 -10.416472889220884 -21.524709461478736 0 0 0
2288 763 1 0.42379999 -17.513828018578494 -11.332846613883522 -21.924512503013823 0 0 0
3260 1087 1 0.42379999 -20.364909585849915 -15.107704028736098 21.941399136563184 0 0 -1
3251 1084 1 0.42379999 -20.52202430540358 -23.093315744618774 0.06249247115748831 0 0 0
3464 1155 1 0.42379999 -11.681860888085144 -22.96906170098183 -7.629351101091255 0 0 0
3569 1190 1 0.42379999 -6.6882840325516355 -22.945270089593766 -14.64861999951342 0 0 0
3458 1153 1 0.42379999 -11.006754124829843 -22.938788657908354 21.47497692199004 0 0 -1
2725 909 2 -0.84759998 -0.2282682703479316 -10.155828663887684 -6.788177923235211 0 0 0
1217 406 1 0.42379999 -15.77944739883565 -8.242168477235163 3.7621735160797196 0 0 0
3365 1122 1 0.42379999 -16.130549787845833 -22.737688439567545 14.591570453754837 0 0 0
2180 727 1 0.42379999 -22.03383504412654 -11.373821737437874 -21.74933642936368 0 0 0
4448 1483 1 0.42379999 -15.01111982477218 -13.87999287227733 -18.523626035255248 0 0 0
5745 1915 1 0.42379999 -9.919814111791887 -9.703671009025799 -18.409595659085426 0 0 0
5744 1915 1 0.42379999 -8.29953161976156 -9.862908927764297 -18.28328462312792 0 0 0
5743 1915 2 -0.84759998 -9.130828627946066 -10.258319409429456 -18.673920337601672 0 0 0
5637 1879 1 0.42379999 -14.092111000196056 -9.74286536670383 -18.134585390468928 0 0 0
5636 1879 1 0.42379999 -12.465400609350299 -9.770324171744974 -17.994278738829333 0 0 0
5635 1879 2 -0.84759998 -13.249819423968175 -10.157944896208686 -18.47846638327667 0 0 0
4557 1519 1 0.42379999 -12.091838165609605 -13.497648153533413 -18.415913335989718 0 0 0
4556 1519 1 0.42379999 -10.487173161619989 -13.493891524973867 -18.718674484293192 0 0 0
4555 1519 2 -0.84759998 -11.353320122654242 -13.955106567017927 -18.911215673219218 0 0 0
3477 1159 1 0.42379999 -11.272392913314588 -14.275866709162518 -20.585755659946106 0 0 0
2505 835 1 0.42379999 -8.69305992258813 -10.561442952890374 -20.455756966263767 0 0 0
2397 799 1 0.42379999 -12.86246902387908 -10.549503247252343 -20.392623755792457 0 0 0
2395 799 2 -0.84759998 -13.089758712771836 -10.432894062052139 -21.35944424079459 0 0 0
1317 439 1 0.42379999 -11.097933700906509 -8.829611920097852 -16.3826814508892 0 0 0
1315 439 2 -0.84759998 -11.145830023763875 -8.969556921779928 -17.371681803901087 0 0 0
345 115 1 0.42379999 -8.975017355825985 -12.796111076515711 -16.975098810760493 0 0 0
344 115 1 0.42379999 -9.119570149748602 -12.06819949134326 -18.42970385712074 0 0 0
343 115 2 -0.84759998 -8.966206679538166 -12.940091667892924 -17.964640395407656 0 0 0
237 79 1 0.42379999 -13.40274522325237 -12.715232206319493 -17.05275706579826 0 0 0
236 79 1 0.42379999 -13.584892607064388 -11.925118924914266 -18.47020895863731 0 0 0
235 79 2 -0.84759998 -13.705633810922517 -12.800431179469285 -18.00196720534438 0 0 0
3475 1159 2 -0.84759998 -11.206829019941996 -14.516479615162202 -21.55416010785062 0 0 0
2503 835 2 -0.84759998 -8.52482287696537 -10.626654182296132 -21.439345388720895 0 0 0
2396 799 1 0.42379999 -13.134274125270254 -11.328644192243063 -21.80176815445943 0 0 0
3689 1230 1 0.42379999 -2.1883136302051858 -23.11434611174478 15.310580846249241 0 0 0
3581 1194 1 0.42379999 -6.674312923144971 -23.024627912901046 14.242344827225427 0 0 0
2504 835 1 0.42379999 -8.607681472449011 -11.580141279798381 -21.729175061892096 0 0 0
6732 2244 1 0.42379999 -9.922803770192534 -9.574205738623023 21.513452488764504 0 0 0
4665 1555 1 0.42379999 -7.596320392324135 -13.730576380001066 -18.811402014852032 0 0 0
1514 505 1 0.42379999 -2.0141816960653314 -15.72613016421804 -17.8172086179389 0 0 0
5853 1951 1 0.42379999 -5.596380052697972 -9.974258049202195 -18.4872935584551 0 0 0
5852 1951 1 0.42379999 -4.013527990524105 -10.24547468354326 -18.191238845872192 0 0 0
5851 1951 2 -0.84759998 -4.849066836683924 -10.631988349123567 -18.58173411793728 0 0 0
4773 1591 1 0.42379999 -3.13829128861529 -13.555986490503523 -18.47692570869918 0 0 0
4772 1591 1 0.42379999 -1.528624199732598 -13.817050793272486 -18.563219096429886 0 0 0
4771 1591 2 -0.84759998 -2.4000486650193356 -13.924653456764895 -19.041802205388 0 0 0
4664 1555 1 0.42379999 -6.070055008011212 -13.537968131422172 -18.26363828335617 0 0 0
4663 1555 2 -0.84759998 -6.632438700203437 -13.9232797209771 -18.99525523303145 0 0 0
3693 1231 1 0.42379999 -2.0948061251907344 -14.461706906019161 -20.58650402751334 0 0 0
3585 1195 1 0.42379999 -6.5693544021538575 -14.261688674212307 -20.90185918301374 0 0 0
2613 871 1 0.42379999 -3.870069720785179 -10.619296719323616 -20.506440835312315 0 0 0
1533 511 1 0.42379999 -2.5079214718566996 -8.991274866898262 -16.826963846033564 0 0 0
1531 511 2 -0.84759998 -2.6648429108270757 -9.057022036465925 -17.812384261269802 0 0 0
1425 475 1 0.42379999 -6.704130001909779 -8.916204599096547 -16.620977572288666 0 0 0
1423 475 2 -0.84759998 -6.8472405489246535 -9.021963344952963 -17.605019711345513 0 0 0
453 151 1 0.42379999 -4.477958151955439 -13.191390281398899 -16.50357272287477 0 0 0
452 151 1 0.42379999 -4.7680224074174715 -12.237253833743475 -17.796674797083828 0 0 0
451 151 2 -0.84759998 -4.558829634689883 -13.169053568896334 -17.50004710372185 0 0 0
5961 1987 1 0.42379999 -0.9126498842107675 -10.413806455059532 -18.43205785754875 0 0 0
3691 1231 2 -0.84759998 -1.9248862174194328 -14.49706054451673 -21.571332036596182 0 0 0
3583 1195 2 -0.84759998 -6.356498773798928 -14.367206479162435 -21.87323006595848 0 0 0
8027 2676 1 0.42379999 -4.880217514420469 -13.386510559718005 21.803278415712338 0 0 0
555 185 1 0.42379999 -0.2324077661090332 -21.31743724141454 12.221841293828229 0 0 0
2727 909 1 0.42379999 -0.03658645975652822 -10.045569720836463 -5.8129335741482695 0 0 0
3350 1117 1 0.42379999 -15.546316599910305 -22.976960344660565 21.542765489163187 0 0 -1
3674 1225 1 0.42379999 -1.8183775103229174 -23.181892897664543 21.76212244766693 0 0 -1
3578 1193 1 0.42379999 -7.117575206796979 -22.54392736874512 7.468155497745532 0 0 0
3470 1157 1 0.42379999 -11.775922169830745 -23.083479827898 7.260455150529602 0 0 0
3356 1119 1 0.42379999 -16.025117064163357 -22.71900709078794 -7.414280432342703 0 0 0
2612 871 1 0.42379999 -3.830567016099014 -11.31154379436611 -21.98490627653837 0 0 0
2611 871 2 -0.84759998 -3.7175452976821806 -10.455198618357764 -21.481021963287063 0 0 0
554 185 1 0.42379999 -0.10124154182495533 -20.182482000732374 11.055094006916887 0 0 0
547 183 2 -0.84759998 -0.6017970248370766 -20.360623616760588 -3.0275871834124883 0 0 0
7671 2557 1 0.42379999 -16.776035224171533 -21.202016887525943 -14.96687128735065 0 0 0
7670 2557 1 0.42379999 -18.379307874125164 -21.11716555189162 -14.66863688140992 0 0 0
7669 2557 2 -0.84759998 -17.591329099651702 -20.627921572608795 -15.042442910539332 0 0 0
2178 726 1 0.42379999 -22.351215124153995 -18.200533748560208 16.255629352879726 0 0 0
6590 2197 1 0.42379999 -16.830272842301177 -17.366113132303955 -15.071489210289572 0 0 0
6589 2197 2 -0.84759998 -15.953081534912103 -16.956511440722345 -15.322018898349626 0 0 0
6483 2161 1 0.42379999 -19.312512758754433 -17.386957722206823 -15.024173519461538 0 0 0
6482 2161 1 0.42379999 -20.934337308470283 -17.27852639641406 -14.867474932645345 0 0 0
6481 2161 2 -0.84759998 -20.116026983532812 -16.825008768214516 -15.220590873685302 0 0 0
5514 1838 1 0.42379999 -18.588120615672747 -17.838777788483302 -11.15713577381155 0 0 0
5513 1838 1 0.42379999 -16.970252589248204 -17.91057254786199 -11.366838269747852 0 0 0
5512 1838 2 -0.84759998 -17.839827421421724 -18.364045970689894 -11.562291303362178 0 0 0
4434 1478 1 0.42379999 -16.43316325524796 -21.92966557311205 -11.67618927783737 0 0 0
4432 1478 2 -0.84759998 -15.545898108772862 -22.365321729121536 -11.827732208200784 0 0 0
4326 1442 1 0.42379999 -20.75477077820762 -21.65369660043872 -11.17889900615701 0 0 0
4325 1442 1 0.42379999 -19.13277238413479 -21.754110317344125 -11.33910181708288 0 0 0
4324 1442 2 -0.84759998 -19.996803076021713 -22.24335637775656 -11.457801686487311 0 0 0
3354 1118 1 0.42379999 -15.47979598410547 -22.36440401462868 -13.684126759055601 0 0 0
3352 1118 2 -0.84759998 -15.498382641190183 -22.341994640989473 -14.68370463830936 0 0 0
3246 1082 1 0.42379999 -19.710198168717877 -22.372942180029757 -13.120152578033855 0 0 0
3244 1082 2 -0.84759998 -19.420738373319548 -22.280546556512274 -14.072874649829432 0 0 0
2274 758 1 0.42379999 -18.104159511156567 -18.20705828446057 -13.083090362822862 0 0 0
2273 758 1 0.42379999 -17.839491219636567 -19.104344586413248 -14.421542705305729 0 0 0
2272 758 2 -0.84759998 -18.16607189519192 -18.222635155500964 -14.081050950664768 0 0 0
1193 398 1 0.42379999 -15.760969816215756 -15.84696832281101 -11.07191154701293 0 0 0
1192 398 2 -0.84759998 -15.779910695924904 -16.774938051061156 -10.699732616658745 0 0 0
1084 362 2 -0.84759998 -20.084415248760333 -16.95777600316185 -10.323201487761713 0 0 0
113 38 1 0.42379999 -17.47633496521554 -19.94752789818501 -11.250290564170484 0 0 0
112 38 2 -0.84759998 -17.674879044765042 -20.917242056097294 -11.10803871614932 0 0 0
1085 362 1 0.42379999 -20.302350205369443 -16.020775846845016 -10.596213261588506 0 0 0
5405 1802 1 0.42379999 -21.803267475584725 -17.47526737828797 -10.812704680051786 0 0 0
114 38 1 0.42379999 -17.87953832550073 -21.077407293819007 -10.14239788296702 0 0 0
1086 362 1 0.42379999 -20.033169628106517 -17.01100902889076 -9.325935081605246 0 0 0
1194 398 1 0.42379999 -15.615577967467582 -16.74207846796622 -9.713872853672765 0 0 0
2185 729 2 -0.84759998 -22.26074021191998 -10.592944033845416 -6.645516747175062 0 0 0
1541 514 1 0.42379999 -1.8867955489493722 -7.977178312305626 4.134238547630375 0 0 0
1316 439 1 0.42379999 -11.448414699909135 -8.125046694683336 -17.813547467985984 0 0 0
3473 1158 1 0.42379999 -11.48941542527408 -23.21083882306009 14.45551711915198 0 0 0
1436 479 1 0.42379999 -6.670815911771578 -8.340363022286569 10.917676121589983 0 0 0
4433 1478 1 0.42379999 -14.834694287069153 -21.847237908233527 -11.352570220096906 0 0 0
6591 2197 1 0.42379999 -15.208087526044471 -17.516712435452156 -14.959854915875963 0 0 0
7887 2629 1 0.42379999 -8.08987854798751 -20.962140741844127 -14.646151835565979 0 0 0
7886 2629 1 0.42379999 -9.686915056380288 -21.208274909878583 -14.881776669198794 0 0 0
7885 2629 2 -0.84759998 -8.940048545123048 -20.549633757814323 -14.973335844978841 0 0 0
7779 2593 1 0.42379999 -12.427655147964748 -21.572213766777015 -15.285346891247322 0 0 0
7778 2593 1 0.42379999 -14.023100133456248 -21.87809984465516 -15.451535990330548 0 0 0
7777 2593 2 -0.84759998 -13.285660220411227 -21.242086287597033 -15.678849911381375 0 0 0
6699 2233 1 0.42379999 -10.503222222685844 -17.47501422060413 -14.874803026784415 0 0 0
6698 2233 1 0.42379999 -12.078456042515874 -17.823954774534055 -14.622794020401068 0 0 0
6697 2233 2 -0.84759998 -11.438454627568484 -17.12932326180554 -14.951254745815985 0 0 0
5730 1910 1 0.42379999 -9.836518036190771 -17.273475497783256 -11.085108103799428 0 0 0
5729 1910 1 0.42379999 -8.230468570167936 -17.516564275793534 -10.917354361575327 0 0 0
5728 1910 2 -0.84759998 -9.049599341517368 -17.791106906454228 -11.420995698434986 0 0 0
5622 1874 1 0.42379999 -14.104938322990877 -17.887353311218252 -11.417422953572263 0 0 0
5621 1874 1 0.42379999 -12.484797363919654 -17.836405286021687 -11.61534842937629 0 0 0
5620 1874 2 -0.84759998 -13.330023424783455 -18.280908690181644 -11.912017097316292 0 0 0
4542 1514 1 0.42379999 -12.044424309920798 -21.454289072490837 -11.292992183662331 0 0 0
4541 1514 1 0.42379999 -10.437078866018213 -21.264996976204174 -11.510335972063794 0 0 0
4540 1514 2 -0.84759998 -11.267120604442953 -21.68361621361041 -11.878834720712339 0 0 0
3462 1154 1 0.42379999 -11.197181813057211 -22.010574535158618 -13.581623601199034 0 0 0
3460 1154 2 -0.84759998 -10.897992561904546 -22.215479654105142 -14.513559662571112 0 0 0
2490 830 1 0.42379999 -9.161468641566556 -18.058567029106882 -13.16712340107003 0 0 0
2489 830 1 0.42379999 -8.93748567874963 -18.957906746608938 -14.5116108057061 0 0 0
2488 830 2 -0.84759998 -9.122203485295973 -18.03783724043682 -14.166137329228663 0 0 0
2382 794 1 0.42379999 -13.98043513580329 -19.04365569087309 -13.471180253749903 0 0 0
2381 794 1 0.42379999 -13.751734244408784 -19.75249322022747 -14.924409154899214 0 0 0
2380 794 2 -0.84759998 -13.884714343988714 -18.88058462181192 -14.453140604178751 0 0 0
1300 434 2 -0.84759998 -11.428451131723305 -16.426970425839034 -10.65219888559471 0 0 0
329 110 1 0.42379999 -8.955621922020443 -19.505037027872127 -11.049826469138157 0 0 0
328 110 2 -0.84759998 -8.870707607354927 -20.447806618109876 -10.727374250358489 0 0 0
221 74 1 0.42379999 -13.440453009367822 -19.836268282893688 -11.17520083888826 0 0 0
220 74 2 -0.84759998 -13.539320295995205 -20.696932703170763 -10.675715727237629 0 0 0
1301 434 1 0.42379999 -11.540480287731196 -15.470354119715648 -10.921153564036691 0 0 0
330 110 1 0.42379999 -9.027301161517132 -20.47780620012235 -9.740166677730308 0 0 0
4650 1550 1 0.42379999 -7.587570074866306 -21.631731657894584 -11.056021800644213 0 0 0
1302 434 1 0.42379999 -11.550242194191405 -16.51161715649174 -9.663256894152736 0 0 0
1211 404 1 0.42379999 -15.500552701072861 -7.844100106056293 -11.153850591669253 0 0 0
3677 1226 1 0.42379999 -2.3998756003310144 -23.184095283788643 -14.357321817303356 0 0 0
6806 2269 1 0.42379999 -7.829709714947385 -16.87490832723102 -15.023561911226249 0 0 0
1408 470 2 -0.84759998 -6.689346356025622 -16.68891661965022 -10.220928324859106 0 0 0
7993 2665 2 -0.84759998 -4.449231103573311 -20.848130728823506 -14.885679340308412 0 0 0
7994 2665 1 0.42379999 -5.166353023129748 -21.470415551784004 -14.571835149720872 0 0 0
7995 2665 1 0.42379999 -3.553194178904053 -21.251068495241796 -14.699240392928687 0 0 0
6915 2305 1 0.42379999 -1.9961809372115145 -17.963906563731566 -14.643227551374745 0 0 0
6914 2305 1 0.42379999 -3.561471107682279 -17.518645316381566 -14.778270912576772 0 0 0
6913 2305 2 -0.84759998 -2.619945901787776 -17.273251130879903 -15.009169965740067 0 0 0
6807 2269 1 0.42379999 -6.235013648067385 -17.220120785361626 -15.0898897592252 0 0 0
6805 2269 2 -0.84759998 -6.939186242042247 -16.560321863074652 -15.352201554444044 0 0 0
5838 1946 1 0.42379999 -5.453102427089649 -17.70050431218917 -10.934255574703018 0 0 0
5837 1946 1 0.42379999 -3.857192731311364 -17.661877180292446 -11.27806768596385 0 0 0
5836 1946 2 -0.84759998 -4.742630512622256 -18.037155001098572 -11.552233305062686 0 0 0
4758 1586 1 0.42379999 -3.095299161497786 -21.53893534905441 -10.87706072311636 0 0 0
4757 1586 1 0.42379999 -1.469301420611993 -21.389415752802606 -10.857015493188934 0 0 0
4756 1586 2 -0.84759998 -2.232271658758443 -21.972022794492148 -11.137098242064166 0 0 0
4649 1550 1 0.42379999 -5.971127126650717 -21.616902343877268 -11.287363243129958 0 0 0
4648 1550 2 -0.84759998 -6.783258303968858 -22.19809395210192 -11.235790525820473 0 0 0
3678 1226 1 0.42379999 -2.339270458445584 -22.246624190155945 -13.021618532618334 0 0 0
3676 1226 2 -0.84759998 -2.344981640064387 -22.243734582008297 -14.02159918909575 0 0 0
3570 1190 1 0.42379999 -6.906772307140547 -22.27587706060556 -13.17525569604962 0 0 0
3568 1190 2 -0.84759998 -6.721821612073158 -22.08531609049077 -14.139351144251732 0 0 0
2598 866 1 0.42379999 -5.12345354157071 -18.312404143351337 -13.377656522449602 0 0 0
2597 866 1 0.42379999 -5.0697932482939265 -19.255328241908874 -14.709813169840933 0 0 0
2596 866 2 -0.84759998 -5.321296073415546 -18.3540663431228 -14.35700480116381 0 0 0
1516 506 2 -0.84759998 -2.175565312278699 -16.790884859412397 -10.722647442322856 0 0 0
437 146 1 0.42379999 -4.636663529971185 -19.643560871097215 -10.908238552123423 0 0 0
436 146 2 -0.84759998 -4.544800930260641 -20.548276829285964 -10.492238458265687 0 0 0
1409 470 1 0.42379999 -6.771328771167743 -15.768174548724508 -10.602390869665014 0 0 0
1517 506 1 0.42379999 -2.3603207258256633 -15.877570147380899 -11.08558332828524 0 0 0
3575 1192 1 0.42379999 -7.231555194391669 -23.27909479914108 -0.08993112467974419 0 0 0
438 146 1 0.42379999 -4.487063506329189 -20.453839803330755 -9.498381872826364 0 0 0
1410 470 1 0.42379999 -6.694079594815542 -16.637594160084944 -9.222257199695965 0 0 0
8102 2701 1 0.42379999 -0.6785685120592575 -21.878447449661625 -15.319041199375922 0 0 0
4788 1596 1 0.42379999 -2.9303918497689136 -13.631554405091979 18.404739431166316 0 0 0
5866 1956 2 -0.84759998 -4.513460802595297 -9.798423209201879 17.522876917856845 0 0 0
5955 1985 1 0.42379999 -1.2022894469232774 -17.621931164232304 11.100717685207343 0 0 0
3257 1086 1 0.42379999 -21.065971432713376 -22.992797545032722 15.523639883734688 0 0 0
468 156 1 0.42379999 -4.309612949232555 -12.687786208007518 19.669413684965207 0 0 0
542 181 1 0.42379999 -0.4452308030597191 -19.99996892293176 -18.29054497554179 0 0 0
3359 1120 1 0.42379999 -16.35107333546482 -22.996098526456095 0.19222859095718825 0 0 0
3371 1124 1 0.42379999 -15.915089224312258 -15.176340116493352 -14.53760879766315 0 0 0
3263 1088 1 0.42379999 -19.868026136288645 -15.368065031297949 -14.600375840470655 0 0 0
7687 2563 2 -0.84759998 -17.902170169113845 -13.002824358550553 -15.033236951024485 0 0 0
7689 2563 1 0.42379999 -17.01082998164448 -13.43184724531423 -14.886770966941855 0 0 0
7688 2563 1 0.42379999 -18.624423613584845 -13.619692704065388 -14.720468548315363 0 0 0
6608 2203 1 0.42379999 -16.60839463505412 -9.527955328257274 -14.78184346735715 0 0 0
6607 2203 2 -0.84759998 -15.915574093743633 -8.846402974950252 -15.017398994205356 0 0 0
6501 2167 1 0.42379999 -19.598582476264088 -9.560546633393713 -14.689541898266611 0 0 0
6500 2167 1 0.42379999 -21.23009974712028 -9.544264637094974 -14.75673827145539 0 0 0
6499 2167 2 -0.84759998 -20.393515614951735 -9.142859772500314 -15.129567935103022 0 0 0
5532 1844 1 0.42379999 -18.518168241377587 -9.564861570839 -11.059348986147015 0 0 0
5531 1844 1 0.42379999 -16.888443970559635 -9.643546805201817 -10.992732924582917 0 0 0
5530 1844 2 -0.84759998 -17.724448108293252 -10.163170445332476 -11.169063384111091 0 0 0
4452 1484 1 0.42379999 -16.10270182098456 -13.760006605001795 -11.265244657408568 0 0 0
4450 1484 2 -0.84759998 -15.251984200198592 -14.216284811595251 -11.526185279356365 0 0 0
4344 1448 1 0.42379999 -21.11019936447514 -13.929917177154055 -11.00807844109034 0 0 0
4343 1448 1 0.42379999 -19.482028033545934 -14.055147652366891 -11.006167891318151 0 0 0
4342 1448 2 -0.84759998 -20.33570295026801 -14.511087311789051 -11.2578828835515 0 0 0
3372 1124 1 0.42379999 -15.398057501957245 -14.249475409580935 -13.296549254379316 0 0 0
3370 1124 2 -0.84759998 -15.593819217500005 -14.265897645901454 -14.277065666327148 0 0 0
3264 1088 1 0.42379999 -20.01410841892299 -14.541663279613113 -13.199537947745462 0 0 0
3262 1088 2 -0.84759998 -19.843502489028545 -14.460344744846939 -14.18151618857081 0 0 0
2292 764 1 0.42379999 -18.100534634876336 -10.415998102278206 -13.043697820872154 0 0 0
2291 764 1 0.42379999 -18.310659985577747 -11.210357561308038 -14.454891706363338 0 0 0
2290 764 2 -0.84759998 -18.173383251186497 -10.312897271154089 -14.0356986015776 0 0 0
1210 404 2 -0.84759998 -15.516948458218367 -8.713176637259764 -10.659442874198 0 0 0
1102 368 2 -0.84759998 -20.12856326608175 -9.084907337918926 -10.724044196179749 0 0 0
131 44 1 0.42379999 -17.77065588505146 -12.127059971586995 -11.067908198265513 0 0 0
130 44 2 -0.84759998 -17.64417403298981 -12.98062168495074 -10.5624995624839 0 0 0
5423 1808 1 0.42379999 -21.741445346631323 -9.796505171372601 -11.352892559515245 0 0 0
4451 1484 1 0.42379999 -14.47389316003717 -13.643396247979048 -11.268554864701605 0 0 0
2173 725 2 -0.84759998 -21.64076060316575 -18.126013926571698 7.695529156413892 0 0 0
1532 511 1 0.42379999 -2.784539293263886 -8.13996589235743 -18.192753797921405 0 0 0
573 191 1 0.42379999 -0.11124167959601433 -13.12496090776746 12.175137993115019 0 0 0
7581 2527 1 0.42379999 -21.418858905685983 -13.56997460248256 -14.961436178647078 0 0 0
2161 721 2 -0.84759998 -22.35029531094692 -18.130455520987407 -21.396788658126546 0 0 0
1319 440 1 0.42379999 -10.989269044036254 -7.905072555636667 -10.996964232657312 0 0 0